# vtk DataFile Version 3.0
#This file was generated by the deal.II library on 2025/1/9 at 16:54:51
ASCII
DATASET UNSTRUCTURED_GRID

FIELD FieldData 2
CYCLE 1 1 int
100
TIME 1 1 double
10
POINTS 7840 double
0.154749 -0.0884861 0
0.159385 -0.100467 0
0.166625 -0.102367 0
0.168051 -0.109595 0
0.166625 -0.102367 0
0.168051 -0.109595 0
0.178501 -0.116247 0
0.176716 -0.118723 0
0.168051 -0.109595 0
0.169477 -0.116823 0
0.176716 -0.118723 0
0.174932 -0.121199 0
0.159385 -0.100467 0
0.164022 -0.112447 0
0.168051 -0.109595 0
0.169477 -0.116823 0
0.19 -0.1354 0
0.18425 -0.125824 0
0.187025 -0.13595 0
0.181871 -0.127337 0
0.187025 -0.13595 0
0.181871 -0.127337 0
0.18405 -0.1365 0
0.179491 -0.128849 0
0.181871 -0.127337 0
0.176716 -0.118723 0
0.179491 -0.128849 0
0.174932 -0.121199 0
0.18425 -0.125824 0
0.178501 -0.116247 0
0.181871 -0.127337 0
0.176716 -0.118723 0
0.1781 -0.1376 0
0.181075 -0.13705 0
0.171061 -0.125024 0
0.175276 -0.126937 0
0.171061 -0.125024 0
0.175276 -0.126937 0
0.164022 -0.112447 0
0.169477 -0.116823 0
0.175276 -0.126937 0
0.179491 -0.128849 0
0.169477 -0.116823 0
0.174932 -0.121199 0
0.181075 -0.13705 0
0.18405 -0.1365 0
0.175276 -0.126937 0
0.179491 -0.128849 0
0.1781 -0.1376 0
0.171061 -0.125024 0
0.174325 -0.140575 0
0.16912 -0.129466 0
0.174325 -0.140575 0
0.16912 -0.129466 0
0.17055 -0.14355 0
0.167178 -0.133907 0
0.16912 -0.129466 0
0.163914 -0.118356 0
0.167178 -0.133907 0
0.163806 -0.124265 0
0.171061 -0.125024 0
0.164022 -0.112447 0
0.16912 -0.129466 0
0.163914 -0.118356 0
0.163 -0.1495 0
0.166775 -0.146525 0
0.159075 -0.132744 0
0.163127 -0.133326 0
0.159075 -0.132744 0
0.163127 -0.133326 0
0.155151 -0.115988 0
0.159479 -0.120126 0
0.163127 -0.133326 0
0.167178 -0.133907 0
0.159479 -0.120126 0
0.163806 -0.124265 0
0.166775 -0.146525 0
0.17055 -0.14355 0
0.163127 -0.133326 0
0.167178 -0.133907 0
0.154749 -0.0884861 0
0.15495 -0.102237 0
0.159385 -0.100467 0
0.159432 -0.110296 0
0.159385 -0.100467 0
0.159432 -0.110296 0
0.164022 -0.112447 0
0.163914 -0.118356 0
0.159432 -0.110296 0
0.159479 -0.120126 0
0.163914 -0.118356 0
0.163806 -0.124265 0
0.15495 -0.102237 0
0.155151 -0.115988 0
0.159432 -0.110296 0
0.159479 -0.120126 0
0.154749 -0.0884861 0
0.163086 -0.0479412 0
0.136985 -0.0676563 0
0.146501 -0.036836 0
0.136985 -0.0676563 0
0.146501 -0.036836 0
0.119222 -0.0468265 0
0.129915 -0.0257308 0
0.146501 -0.036836 0
0.156016 -0.00601566 0
0.129915 -0.0257308 0
0.140608 -0.00463508 0
0.163086 -0.0479412 0
0.171424 -0.00739624 0
0.146501 -0.036836 0
0.156016 -0.00601566 0
0.0752648 -0.0278696 0
0.0972434 -0.037348 0
0.0964734 -1.71274e-05 0
0.113194 -0.012874 0
0.0964734 -1.71274e-05 0
0.113194 -0.012874 0
0.117682 0.0278353 0
0.129145 0.0116001 0
0.113194 -0.012874 0
0.129915 -0.0257308 0
0.129145 0.0116001 0
0.140608 -0.00463508 0
0.0972434 -0.037348 0
0.119222 -0.0468265 0
0.113194 -0.012874 0
0.129915 -0.0257308 0
0.2165 0.125 0
0.167091 0.0764177 0
0.193962 0.0588019 0
0.161553 0.035201 0
0.193962 0.0588019 0
0.161553 0.035201 0
0.171424 -0.00739624 0
0.156016 -0.00601566 0
0.161553 0.035201 0
0.129145 0.0116001 0
0.156016 -0.00601566 0
0.140608 -0.00463508 0
0.167091 0.0764177 0
0.117682 0.0278353 0
0.161553 0.035201 0
0.129145 0.0116001 0
0.2165 0.125 0
0.193962 0.0588019 0
0.2165 0.0625 0
0.199497 0.0219859 0
0.2165 0.0625 0
0.199497 0.0219859 0
0.2165 3.44086e-13 0
0.205031 -0.01483 0
0.199497 0.0219859 0
0.182493 -0.0185282 0
0.205031 -0.01483 0
0.193562 -0.0296601 0
0.193962 0.0588019 0
0.171424 -0.00739624 0
0.199497 0.0219859 0
0.182493 -0.0185282 0
0.2165 -0.125 0
0.2165 -0.0625 0
0.202883 -0.103746 0
0.203957 -0.0592879 0
0.202883 -0.103746 0
0.203957 -0.0592879 0
0.189266 -0.0824914 0
0.191414 -0.0560757 0
0.203957 -0.0592879 0
0.205031 -0.01483 0
0.191414 -0.0560757 0
0.193562 -0.0296601 0
0.2165 -0.0625 0
0.2165 3.44086e-13 0
0.203957 -0.0592879 0
0.205031 -0.01483 0
0.154749 -0.0884861 0
0.172007 -0.0854888 0
0.163086 -0.0479412 0
0.17725 -0.0520085 0
0.163086 -0.0479412 0
0.17725 -0.0520085 0
0.171424 -0.00739624 0
0.182493 -0.0185282 0
0.17725 -0.0520085 0
0.191414 -0.0560757 0
0.182493 -0.0185282 0
0.193562 -0.0296601 0
0.172007 -0.0854888 0
0.189266 -0.0824914 0
0.17725 -0.0520085 0
0.191414 -0.0560757 0
-0.2042 0.086 0
-0.200001 0.0865073 0
-0.205825 0.091925 0
-0.201535 0.0911318 0
-0.205825 0.091925 0
-0.201535 0.0911318 0
-0.20745 0.09785 0
-0.20307 0.0957564 0
-0.201535 0.0911318 0
-0.197245 0.0903387 0
-0.20307 0.0957564 0
-0.198689 0.0936628 0
-0.200001 0.0865073 0
-0.195802 0.0870145 0
-0.201535 0.0911318 0
-0.197245 0.0903387 0
-0.2107 0.1097 0
-0.209075 0.103775 0
-0.201465 0.103016 0
-0.202267 0.099386 0
-0.201465 0.103016 0
-0.202267 0.099386 0
-0.19223 0.0963311 0
-0.195459 0.094997 0
-0.202267 0.099386 0
-0.20307 0.0957564 0
-0.195459 0.094997 0
-0.198689 0.0936628 0
-0.209075 0.103775 0
-0.20745 0.09785 0
-0.202267 0.099386 0
-0.20307 0.0957564 0
-0.18334 0.0852599 0
-0.187785 0.0907955 0
-0.189571 0.0861372 0
-0.192515 0.0905671 0
-0.189571 0.0861372 0
-0.192515 0.0905671 0
-0.195802 0.0870145 0
-0.197245 0.0903387 0
-0.192515 0.0905671 0
-0.195459 0.094997 0
-0.197245 0.0903387 0
-0.198689 0.0936628 0
-0.187785 0.0907955 0
-0.19223 0.0963311 0
-0.192515 0.0905671 0
-0.195459 0.094997 0
-0.18334 0.0852599 0
-0.189571 0.0861372 0
-0.185719 0.0817784 0
-0.190715 0.0830815 0
-0.185719 0.0817784 0
-0.190715 0.0830815 0
-0.188099 0.0782969 0
-0.19186 0.0800258 0
-0.190715 0.0830815 0
-0.195712 0.0843846 0
-0.19186 0.0800258 0
-0.195622 0.0817546 0
-0.189571 0.0861372 0
-0.195802 0.0870145 0
-0.190715 0.0830815 0
-0.195712 0.0843846 0
-0.2009 0.0741 0
-0.194499 0.0761985 0
-0.201725 0.077075 0
-0.196793 0.0785504 0
-0.201725 0.077075 0
-0.196793 0.0785504 0
-0.20255 0.08005 0
-0.199086 0.0809023 0
-0.196793 0.0785504 0
-0.19186 0.0800258 0
-0.199086 0.0809023 0
-0.195622 0.0817546 0
-0.194499 0.0761985 0
-0.188099 0.0782969 0
-0.196793 0.0785504 0
-0.19186 0.0800258 0
-0.2042 0.086 0
-0.203375 0.083025 0
-0.200001 0.0865073 0
-0.199543 0.0837048 0
-0.200001 0.0865073 0
-0.199543 0.0837048 0
-0.195802 0.0870145 0
-0.195712 0.0843846 0
-0.199543 0.0837048 0
-0.199086 0.0809023 0
-0.195712 0.0843846 0
-0.195622 0.0817546 0
-0.203375 0.083025 0
-0.20255 0.08005 0
-0.199543 0.0837048 0
-0.199086 0.0809023 0
-0.114534 -0.0305641 0
-0.118161 -0.0340371 0
-0.109821 -0.034833 0
-0.114405 -0.0380152 0
-0.109821 -0.034833 0
-0.114405 -0.0380152 0
-0.105109 -0.0391018 0
-0.11065 -0.0419933 0
-0.114405 -0.0380152 0
-0.118989 -0.0411974 0
-0.11065 -0.0419933 0
-0.116191 -0.0448847 0
-0.118161 -0.0340371 0
-0.121788 -0.0375101 0
-0.114405 -0.0380152 0
-0.118989 -0.0411974 0
-0.0974277 -0.0507817 0
-0.101268 -0.0449418 0
-0.104497 -0.0529363 0
-0.107573 -0.0474648 0
-0.104497 -0.0529363 0
-0.107573 -0.0474648 0
-0.111566 -0.0550909 0
-0.113878 -0.0499878 0
-0.107573 -0.0474648 0
-0.11065 -0.0419933 0
-0.113878 -0.0499878 0
-0.116191 -0.0448847 0
-0.101268 -0.0449418 0
-0.105109 -0.0391018 0
-0.107573 -0.0474648 0
-0.11065 -0.0419933 0
-0.125831 -0.0579022 0
-0.118698 -0.0564966 0
-0.125889 -0.0525567 0
-0.119884 -0.0512723 0
-0.125889 -0.0525567 0
-0.119884 -0.0512723 0
-0.125947 -0.0472112 0
-0.121069 -0.046048 0
-0.119884 -0.0512723 0
-0.113878 -0.0499878 0
-0.121069 -0.046048 0
-0.116191 -0.0448847 0
-0.118698 -0.0564966 0
-0.111566 -0.0550909 0
-0.119884 -0.0512723 0
-0.113878 -0.0499878 0
-0.126853 -0.0413941 0
-0.1264 -0.0443027 0
-0.12432 -0.0394521 0
-0.122695 -0.04275 0
-0.12432 -0.0394521 0
-0.122695 -0.04275 0
-0.121788 -0.0375101 0
-0.118989 -0.0411974 0
-0.122695 -0.04275 0
-0.121069 -0.046048 0
-0.118989 -0.0411974 0
-0.116191 -0.0448847 0
-0.1264 -0.0443027 0
-0.125947 -0.0472112 0
-0.122695 -0.04275 0
-0.121069 -0.046048 0
0.145019 -0.146552 0
0.148731 -0.146534 0
0.143548 -0.143599 0
0.147018 -0.140828 0
0.143548 -0.143599 0
0.147018 -0.140828 0
0.142077 -0.140647 0
0.145305 -0.135122 0
0.147018 -0.140828 0
0.150487 -0.138057 0
0.145305 -0.135122 0
0.148533 -0.129597 0
0.148731 -0.146534 0
0.152442 -0.146517 0
0.147018 -0.140828 0
0.150487 -0.138057 0
0.137826 -0.138316 0
0.139952 -0.139481 0
0.139916 -0.126503 0
0.142611 -0.130812 0
0.139916 -0.126503 0
0.142611 -0.130812 0
0.142006 -0.114689 0
0.145269 -0.122143 0
0.142611 -0.130812 0
0.145305 -0.135122 0
0.145269 -0.122143 0
0.148533 -0.129597 0
0.139952 -0.139481 0
0.142077 -0.140647 0
0.142611 -0.130812 0
0.145305 -0.135122 0
0.154749 -0.0884861 0
0.148377 -0.101588 0
0.15495 -0.102237 0
0.150109 -0.11219 0
0.15495 -0.102237 0
0.150109 -0.11219 0
0.155151 -0.115988 0
0.151842 -0.122792 0
0.150109 -0.11219 0
0.145269 -0.122143 0
0.151842 -0.122792 0
0.148533 -0.129597 0
0.148377 -0.101588 0
0.142006 -0.114689 0
0.150109 -0.11219 0
0.145269 -0.122143 0
0.163 -0.1495 0
0.159075 -0.132744 0
0.157721 -0.148008 0
0.154781 -0.1354 0
0.157721 -0.148008 0
0.154781 -0.1354 0
0.152442 -0.146517 0
0.150487 -0.138057 0
0.154781 -0.1354 0
0.151842 -0.122792 0
0.150487 -0.138057 0
0.148533 -0.129597 0
0.159075 -0.132744 0
0.155151 -0.115988 0
0.154781 -0.1354 0
0.151842 -0.122792 0
-0.1891 0.0482 0
-0.1864 0.046575 0
-0.185403 0.0515193 0
-0.182284 0.0493433 0
-0.185403 0.0515193 0
-0.182284 0.0493433 0
-0.181706 0.0548385 0
-0.178169 0.0521117 0
-0.182284 0.0493433 0
-0.179166 0.0471674 0
-0.178169 0.0521117 0
-0.174632 0.0493848 0
-0.1864 0.046575 0
-0.1837 0.04495 0
-0.182284 0.0493433 0
-0.179166 0.0471674 0
-0.173135 0.0599935 0
-0.17742 0.057416 0
-0.16896 0.0567801 0
-0.173564 0.0544459 0
-0.16896 0.0567801 0
-0.173564 0.0544459 0
-0.164785 0.0535667 0
-0.169708 0.0514758 0
-0.173564 0.0544459 0
-0.178169 0.0521117 0
-0.169708 0.0514758 0
-0.174632 0.0493848 0
-0.17742 0.057416 0
-0.181706 0.0548385 0
-0.173564 0.0544459 0
-0.178169 0.0521117 0
-0.15814 0.0471656 0
-0.161462 0.0503661 0
-0.163152 0.0457669 0
-0.16643 0.0486213 0
-0.163152 0.0457669 0
-0.16643 0.0486213 0
-0.168164 0.0443682 0
-0.171398 0.0468765 0
-0.16643 0.0486213 0
-0.169708 0.0514758 0
-0.171398 0.0468765 0
-0.174632 0.0493848 0
[...]
POINT_DATA 7840
SCALARS U double 1
LOOKUP_TABLE default
5.18915 5.37006 5.81095 5.82052 5.81095 5.82052 6.47297 6.29473 5.82052 5.81018 6.29473 6.1166 5.37006 5.51954 5.82052 5.81018 7.15144 6.76544 6.8521 6.54142 6.8521 6.54142 6.55752 6.31353 6.54142 6.29473 6.31353 6.1166 6.76544 6.47297 6.54142 6.29473 5.94668 6.25636 5.76625 6.02209 5.76625 6.02209 5.51954 5.81018 6.02209 6.31353 5.81018 6.1166 6.25636 6.55752 6.02209 6.31353 5.94668 5.76625 5.49927 5.53448 5.49927 5.53448 5.12771 5.2842 5.53448 5.42116 5.2842 5.30275 5.76625 5.51954 5.53448 5.42116 4.55766 4.82504 4.86535 5.06595 4.86535 5.06595 4.94232 5.12301 5.06595 5.2842 5.12301 5.30275 4.82504 5.12771 5.06595 5.2842 5.18915 5.08904 5.37006 5.26281 5.37006 5.26281 5.51954 5.42116 5.26281 5.12301 5.42116 5.30275 5.08904 4.94232 5.26281 5.12301 5.18915 5.94161 4.36555 4.98794 4.36555 4.98794 3.68438 4.19907 4.98794 5.68247 4.19907 4.83854 5.94161 6.67807 4.98794 5.68247 2.5639 3.01322 3.11983 3.58595 3.11983 3.58595 4.06633 4.38154 3.58595 4.19907 4.38154 4.83854 3.01322 3.68438 3.58595 4.19907 10 7.23722 8.56147 6.37972 8.56147 6.37972 6.67807 5.68247 6.37972 4.38154 5.68247 4.83854 7.23722 4.06633 6.37972 4.38154 10 8.56147 10 8.7816 10 8.7816 10 9.10333 8.7816 7.39945 9.10333 8.19056 8.56147 6.67807 8.7816 7.39945 10 10 8.68648 8.96753 8.68648 8.96753 7.65278 7.95041 8.96753 9.10333 7.95041 8.19056 10 10 8.96753 9.10333 5.18915 6.33279 5.94161 6.89647 5.94161 6.89647 6.67807 7.39945 6.89647 7.95041 7.39945 8.19056 6.33279 7.65278 6.89647 7.95041 6.36866 6.3242 6.78982 6.65246 6.78982 6.65246 7.25117 7.00443 6.65246 6.51038 7.00443 6.7623 6.3242 6.27203 6.65246 6.51038 8.31616 7.75987 7.49842 7.24883 7.49842 7.24883 6.77786 6.77359 7.24883 7.00443 6.77359 6.7623 7.75987 7.25117 7.24883 7.00443 5.89048 6.316 6.08481 6.41643 6.08481 6.41643 6.27203 6.51038 6.41643 6.77359 6.51038 6.7623 6.316 6.77786 6.41643 6.77359 5.89048 6.08481 5.75818 5.9364 5.75818 5.9364 5.6297 5.79356 5.9364 6.11276 5.79356 5.96015 6.08481 6.27203 5.9364 6.11276 5.64151 5.64637 5.80739 5.80695 5.80739 5.80695 5.98382 5.97505 5.80695 5.79356 5.97505 5.96015 5.64637 5.6297 5.80695 5.79356 6.36866 6.17157 6.3242 6.14553 6.3242 6.14553 6.27203 6.11276 6.14553 5.97505 6.11276 5.96015 6.17157 5.98382 6.14553 5.97505 2.10173 2.092 2.08342 2.07707 2.08342 2.07707 2.06805 2.06431 2.07707 2.07062 2.06431 2.0602 2.092 2.08265 2.07707 2.07062 2.04022 2.05247 2.03989 2.05077 2.03989 2.05077 2.03911 2.0486 2.05077 2.06431 2.0486 2.0602 2.05247 2.06805 2.05077 2.06431 2.03831 2.03899 2.04726 2.04817 2.04726 2.04817 2.05822 2.0594 2.04817 2.0486 2.0594 2.0602 2.03899 2.03911 2.04817 2.0486 2.07316 2.06527 2.07785 2.06806 2.07785 2.06806 2.08265 2.07062 2.06806 2.0594 2.07062 2.0602 2.06527 2.05822 2.06806 2.0594 4.01773 4.13311 4.00315 4.16067 4.00315 4.16067 3.98605 4.1778 4.16067 4.34145 4.1778 4.39709 4.13311 4.25323 4.16067 4.34145 3.86507 3.92559 4.06576 4.12626 4.06576 4.12626 4.2878 4.351 4.12626 4.1778 4.351 4.39709 3.92559 3.98605 4.12626 4.1778 5.18915 4.73148 5.08904 4.71479 5.08904 4.71479 4.94232 4.66338 4.71479 4.351 4.66338 4.39709 4.73148 4.2878 4.71479 4.351 4.55766 4.86535 4.39936 4.58594 4.39936 4.58594 4.25323 4.34145 4.58594 4.66338 4.34145 4.39709 4.86535 4.94232 4.58594 4.66338 4.60162 4.53207 4.59938 4.48889 4.59938 4.48889 4.60459 4.45785 4.48889 4.37442 4.45785 4.30926 4.53207 4.44666 4.48889 4.37442 4.56821 4.58435 4.37028 4.41141 4.37028 4.41141 4.17339 4.23753 4.41141 4.45785 4.23753 4.30926 4.58435 4.60459 4.41141 4.45785 3.82295 3.9982 3.9171 4.07906 3.9171 4.07906 4.02526 4.16984 4.07906 4.23753 4.16984 4.30926 3.9982 4.17339 4.07906 4.23753 4.26459 4.14471 4.35571 4.26191 4.35571 4.26191 4.44666 4.37442 4.26191 4.16984 4.37442 4.30926 4.14471 4.02526 4.26191 4.16984 3.217 3.44112 3.36346 3.57827 3.36346 3.57827 3.53077 3.73283 3.57827 3.81028 3.73283 3.94523 3.44112 3.68968 3.57827 3.81028 3.82295 3.66833 3.9982 3.85874 3.9982 3.85874 4.17339 4.05402 3.85874 3.73283 4.05402 3.94523 3.66833 3.53077 3.85874 3.73283 4.56821 4.37028 4.5215 4.28492 4.5215 4.28492 4.47902 4.20592 4.28492 4.05402 4.20592 3.94523 4.37028 4.17339 4.28492 4.05402 4.36612 4.41926 4.01117 4.1036 4.01117 4.1036 3.68968 3.81028 4.1036 4.20592 3.81028 3.94523 4.41926 4.47902 4.1036 4.20592 2.00049 2.00056 2.0005 2.00057 2.0005 2.00057 2.00054 2.0006 2.00057 2.00065 2.0006 2.00067 2.00056 2.00064 2.00057 2.00065 2.00063 2.00058 2.00069 2.00064 2.00069 2.00064 2.00076 2.00071 2.00064 2.0006 2.00071 2.00067 2.00058 2.00054 2.00064 2.0006 2.00096 2.00085 2.00091 2.0008 2.00091 2.0008 2.00088 2.00077 2.0008 2.00071 2.00077 2.00067 2.00085 2.00076 2.0008 2.00071 2.00088 2.00087 2.00075 2.00075 2.00075 2.00075 2.00064 2.00065 2.00075 2.00077 2.00065 2.00067 2.00087 2.00088 2.00075 2.00077 3.509 3.56747 3.35736 3.50896 3.35736 3.50896 3.2835 3.48555 3.50896 3.68172 3.48555 3.71169 3.56747 3.6664 3.50896 3.68172 3.06444 3.17013 3.29519 3.39122 3.29519 3.39122 3.55758 3.64068 3.39122 3.48555 3.64068 3.71169 3.17013 3.2835 3.39122 3.48555 5.18915 4.27186 4.73148 4.13541 4.73148 4.13541 4.2878 3.98217 4.13541 3.64068 3.98217 3.71169 4.27186 3.55758 4.13541 3.64068 3.86507 4.06576 3.75959 3.86462 3.75959 3.86462 3.6664 3.68172 3.86462 3.98217 3.68172 3.71169 4.06576 4.2878 3.86462 3.98217 4.56821 4.5215 4.80455 4.7902 4.80455 4.7902 5.04289 5.06374 4.7902 4.77731 5.06374 5.08472 4.5215 4.47902 4.7902 4.77731 5.64151 5.34418 5.64637 5.35462 5.64637 5.35462 5.6297 5.35565 5.35462 5.06374 5.35565 5.08472 5.34418 5.04289 5.35462 5.06374 5.89048 5.75818 5.54226 5.44753 5.54226 5.44753 5.19781 5.13962 5.44753 5.35565 5.13962 5.08472 5.75818 5.6297 5.44753 5.35565 4.36612 4.76718 4.41926 4.77059 4.41926 4.77059 4.47902 4.77731 4.77059 5.13962 4.77731 5.08472 4.76718 5.19781 4.77059 5.13962 2.00096 2.00091 2.00109 2.00105 2.00109 2.00105 2.00125 2.00122 2.00105 2.00103 2.00122 2.0012 2.00091 2.00088 2.00105 2.00103 2.00169 2.00145 2.00167 2.00142 2.00167 2.00142 2.00167 2.00141 2.00142 2.00122 2.00141 2.0012 2.00145 2.00125 2.00142 2.00122 2.00171 2.00169 2.00144 2.00142 2.00144 2.00142 2.00122 2.0012 2.00142 2.00141 2.0012 2.0012 2.00169 2.00167 2.00142 2.00141 2.00088 2.00103 2.00087 2.00102 2.00087 2.00102 2.00088 2.00103 2.00102 2.0012 2.00103 2.0012 2.00103 2.00122 2.00102 2.0012 2.00828 2.01087 2.00795 2.01026 2.00795 2.01026 2.00765 2.00971 2.01026 2.01323 2.00971 2.01232 2.01087 2.01424 2.01026 2.01323 2.00711 2.00735 2.00806 2.00881 2.00806 2.00881 2.00913 2.01054 2.00881 2.00971 2.01054 2.01232 2.00735 2.00765 2.00881 2.00971 2.01375 2.01123 2.01721 2.01349 2.01721 2.01349 2.02188 2.01646 2.01349 2.01054 2.01646 2.01232 2.01123 2.00913 2.01349 2.01054 2.03242 2.02695 2.02167 2.01892 2.02167 2.01892 2.01424 2.01323 2.01892 2.01646 2.01323 2.01232 2.02695 2.02188 2.01892 2.01646 2.04881 2.03289 2.03401 2.02378 2.03401 2.02378 2.02359 2.01718 2.02378 2.01893 2.01718 2.01411 2.03289 2.02541 2.02378 2.01893 2.01375 2.01805 2.01077 2.01364 2.01077 2.01364 2.00914 2.01138 2.01364 2.01718 2.01138 2.01411 2.01805 2.02359 2.01364 2.01718 2.00846 2.00826 2.01106 2.01035 2.01106 2.01035 2.0145 2.01298 2.01035 2.01138 2.01298 2.01411 2.00826 2.00914 2.01035 2.01138 2.03417 2.02231 2.02407 2.01763 2.02407 2.01763 2.02541 2.01893 2.01763 2.01298 2.01893 2.01411 2.02231 2.0145 2.01763 2.01298 2.40829 2.34963 2.40291 2.3425 2.40291 2.3425 2.38687 2.33094 2.3425 2.29238 2.33094 2.28367 2.34963 2.29754 2.3425 2.29238 2.34798 2.36948 2.30121 2.3177 2.30121 2.3177 2.25976 2.2729 2.3177 2.33094 2.2729 2.28367 2.36948 2.38687 2.3177 2.33094 2.19238 2.22374 2.19955 2.23344 2.19955 2.23344 2.20533 2.2413 2.23344 2.2729 2.2413 2.28367 2.22374 2.25976 2.23344 2.2729 2.21705 2.21207 2.25358 2.24886 2.25358 2.24886 2.29754 2.29238 2.24886 2.2413 2.29238 2.28367 2.21207 2.20533 2.24886 2.2413 2.15599 2.14398 2.17892 2.16657 2.17892 2.16657 2.20457 2.1919 2.16657 2.15397 2.1919 2.17858 2.14398 2.13202 2.16657 2.15397 2.25078 2.22671 2.25312 2.22067 2.25312 2.22067 2.25394 2.21333 2.22067 2.1919 2.21333 2.17858 2.22671 2.20457 2.22067 2.1919 2.23372 2.24672 2.18063 2.19763 2.18063 2.19763 2.13685 2.15692 2.19763 2.21333 2.15692 2.17858 2.24672 2.25394 2.19763 2.21333 2.10173 2.11858 2.1162 2.1356 2.1162 2.1356 2.13202 2.15397 2.1356 2.15692 2.15397 2.17858 2.11858 2.13685 2.1356 2.15692 2.00212 2.00179 2.00189 2.00158 2.00189 2.00158 2.00171 2.00141 2.00158 2.00132 2.00141 2.00117 2.00179 2.00152 2.00158 2.00132 2.00156 2.00161 2.0012 2.00129 2.0012 2.00129 2.00093 2.00103 2.00129 2.00141 2.00103 2.00117 2.00161 2.00171 2.00129 2.00141 2.00054 2.00072 2.00067 2.00083 2.00067 2.00083 2.00083 2.00098 2.00083 2.00103 2.00098 2.00117 2.00072 2.00093 2.00083 2.00103 2.00114 2.00097 2.00131 2.00113 2.00131 2.00113 2.00152 2.00132 2.00113 2.00098 2.00132 2.00117 2.00097 2.00083 2.00113 2.00098 2.02383 2.02592 2.02621 2.02812 2.02621 2.02812 2.02871 2.03036 2.02812 2.0305 2.03036 2.03235 2.02592 2.0286 2.02812 2.0305 2.03206 2.03036 2.03362 2.03199 2.03362 2.03199 2.03536 2.03389 2.03199 2.03036 2.03389 2.03235 2.03036 2.02871 2.03199 2.03036 2.04141 2.03816 2.04 2.03671 2.04 2.03671 2.03841 2.03514 2.03671 2.03389 2.03514 2.03235 2.03816 2.03536 2.03671 2.03389 2.03466 2.03659 2.03139 2.0333 2.03139 2.0333 2.0286 2.0305 2.0333 2.03514 2.0305 2.03235 2.03659 2.03841 2.0333 2.03514 2.03417 2.03728 2.02231 2.02455 2.02231 2.02455 2.0145 2.01625 2.02455 2.02754 2.01625 2.01901 2.03728 2.03981 2.02455 2.02754 2.00846 2.01106 2.00901 2.01209 2.00901 2.01209 2.01012 2.01386 2.01209 2.01625 2.01386 2.01901 2.01106 2.0145 2.01209 2.01625 2.01227 2.01111 2.01651 2.01515 2.01651 2.01515 2.02217 2.02063 2.01515 2.01386 2.02063 2.01901 2.01111 2.01012 2.01515 2.01386 2.04022 2.02993 2.04031 2.02891 2.04031 2.02891 2.03981 2.02754 2.02891 2.02063 2.02754 2.01901 2.02993 2.02217 2.02891 2.02063 2.04022 2.04031 2.05247 2.05517 2.05247 2.05517 2.06805 2.07491 2.05517 2.05717 2.07491 2.08129 2.04031 2.03981 2.05517 2.05717 2.10173 2.08342 2.11858 2.09462 2.11858 2.09462 2.13685 2.10599 2.09462 2.07491 2.10599 2.08129 2.08342 2.06805 2.09462 2.07491 2.23372 2.18063 2.1598 2.13131 2.1598 2.13131 2.10645 2.09389 2.13131 2.10599 2.09389 2.08129 2.18063 2.13685 2.13131 2.10599 2.03417 2.06062 2.03728 2.05946 2.03728 2.05946 2.03981 2.05717 2.05946 2.09389 2.05717 2.08129 2.06062 2.10645 2.05946 2.09389 2.00427 2.00478 2.00359 2.00404 2.00359 2.00404 2.00301 2.0034 2.00404 2.00457 2.0034 2.00388 2.00478 2.00538 2.00404 2.00457 2.00212 2.00253 2.0024 2.00286 2.0024 2.00286 2.00275 2.00327 2.00286 2.0034 2.00327 2.00388 2.00253 2.00301 2.00286 2.0034 2.00369 2.00318 2.00437 2.00377 2.00437 2.00377 2.00516 2.00447 2.00377 2.00327 2.00447 2.00388 2.00318 2.00275 2.00377 2.00327 2.00695 2.006 2.00611 2.00523 2.00611 2.00523 2.00538 2.00457 2.00523 2.00447 2.00457 2.00388 2.006 2.00516 2.00523 2.00447 2.35583 2.37661 2.29264 2.30267 2.29264 2.30267 2.23935 2.2415 2.30267 2.31119 2.2415 2.24223 2.37661 2.39612 2.30267 2.31119 2.1583 2.19514 2.15162 2.19199 2.15162 2.19199 2.14437 2.18779 2.19199 2.2415 2.18779 2.24223 2.19514 2.23935 2.19199 2.2415 2.12013 2.1323 2.1689 2.17888 2.1689 2.17888 2.23426 2.23921 2.17888 2.18779 2.23921 2.24223 2.1323 2.14437 2.17888 2.18779 2.44415 2.32526 2.42104 2.31938 2.42104 2.31938 2.39612 2.31119 2.31938 2.23921 2.31119 2.24223 2.32526 2.23426 2.31938 2.23921 2.28948 2.30691 2.32157 2.3432 2.32157 2.3432 2.35716 2.38388 2.3432 2.36445 2.38388 2.41036 2.30691 2.32405 2.3432 2.36445 2.43939 2.39634 2.47894 2.42882 2.47894 2.42882 2.5194 2.46141 2.42882 2.38388 2.46141 2.41036 2.39634 2.35716 2.42882 2.38388 2.59912 2.56012 2.52242 2.49343 2.52242 2.49343 2.45852 2.43588 2.49343 2.46141 2.43588 2.41036 2.56012 2.5194 2.49343 2.46141 2.36042 2.40448 2.34314 2.38616 2.34314 2.38616 2.32405 2.36445 2.38616 2.43588 2.36445 2.41036 2.40448 2.45852 2.38616 2.43588 2.28411 2.31973 2.301 2.34324 2.301 2.34324 2.31784 2.36725 2.34324 2.39032 2.36725 2.423 2.31973 2.35889 2.34324 2.39032 2.35583 2.33712 2.4237 2.39547 2.4237 2.39547 2.5022 2.46218 2.39547 2.36725 2.46218 2.423 2.33712 2.31784 2.39547 2.36725 2.66653 2.57941 2.60185 2.52816 2.60185 2.52816 2.54003 2.47866 2.52816 2.46218 2.47866 2.423 2.57941 2.5022 2.52816 2.46218 2.43939 2.48791 2.39778 2.43711 2.39778 2.43711 2.35889 2.39032 2.43711 2.47866 2.39032 2.423 2.48791 2.54003 2.43711 2.47866 2.01774 2.0203 2.01906 2.02148 2.01906 2.02148 2.02034 2.0226 2.02148 2.02437 2.0226 2.02535 2.0203 2.02332 2.02148 2.02437 2.02383 2.02215 2.02592 2.0243 2.02592 2.0243 2.0286 2.027 2.0243 2.0226 2.027 2.02535 2.02215 2.02034 2.0243 2.0226 2.03466 2.03139 2.03281 2.02968 2.03281 2.02968 2.0309 2.02791 2.02968 2.027 2.02791 2.02535 2.03139 2.0286 2.02968 2.027 2.02809 2.02949 2.02558 2.02677 2.02558 2.02677 2.02332 2.02437 2.02677 2.02791 2.02437 2.02535 2.02949 2.0309 2.02677 2.02791 2.11812 2.12235 2.13109 2.13571 2.13109 2.13571 2.1459 2.15109 2.13571 2.14 2.15109 2.1558 2.12235 2.12643 2.13571 2.14 2.18383 2.1636 2.1909 2.16957 2.1909 2.16957 2.19754 2.17506 2.16957 2.15109 2.17506 2.1558 2.1636 2.1459 2.16957 2.15109 2.20931 2.20364 2.18346 2.17965 2.18346 2.17965 2.16196 2.15933 2.17965 2.17506 2.15933 2.1558 2.20364 2.19754 2.17965 2.17506 2.1323 2.14446 2.12956 2.14295 2.12956 2.14295 2.12643 2.14 2.14295 2.15933 2.14 2.1558 2.14446 2.16196 2.14295 2.15933 2.06967 2.0755 2.07217 2.07864 2.07217 2.07864 2.07511 2.08225 2.07864 2.08539 2.08225 2.08975 2.0755 2.08154 2.07864 2.08539 2.0882 2.08121 2.09727 2.08924 2.09727 2.08924 2.10654 2.09763 2.08924 2.08225 2.09763 2.08975 2.08121 2.07511 2.08924 2.08225 2.11812 2.11235 2.10845 2.10303 2.10845 2.10303 2.09982 2.09475 2.10303 2.09763 2.09475 2.08975 2.11235 2.10654 2.10303 2.09763 2.09004 2.09474 2.08574 2.09003 2.08574 2.09003 2.08154 2.08539 2.09003 2.09475 2.08539 2.08975 2.09474 2.09982 2.09003 2.09475 2.18383 2.1909 2.20652 2.21535 2.20652 2.21535 2.23219 2.24316 2.21535 2.22386 2.24316 2.25387 2.1909 2.19754 2.21535 2.22386 2.28948 2.25925 2.30691 2.27319 2.30691 2.27319 2.32405 2.28687 2.27319 2.24316 2.28687 2.25387 2.25925 2.23219 2.27319 2.24316 2.36042 2.34314 2.3173 2.30203 2.3173 2.30203 2.27685 2.2654 2.30203 2.28687 2.2654 2.25387 2.34314 2.32405 2.30203 2.28687 2.20931 2.24097 2.20364 2.23248 2.20364 2.23248 2.19754 2.22386 2.23248 2.2654 2.22386 2.25387 2.24097 2.27685 2.23248 2.2654 2.00213 2.00221 2.00172 2.00177 2.00172 2.00177 2.00139 2.00142 2.00177 2.0018 2.00142 2.00145 2.00221 2.00226 2.00177 2.0018 2.00097 2.00116 2.00099 2.00118 2.00099 2.00118 2.001 2.0012 2.00118 2.00142 2.0012 2.00145 2.00116 2.00139 2.00118 2.00142 2.00104 2.00102 2.00119 2.0012 2.00119 2.0012 2.00143 2.00144 2.0012 2.0012 2.00144 2.00145 2.00102 2.001 2.0012 2.0012 2.00215 2.00175 2.00222 2.00178 2.00222 2.00178 2.00226 2.0018 2.00178 2.00144 2.0018 2.00145 2.00175 2.00143 2.00178 2.00144 2.02056 2.02615 2.0232 2.02791 2.0232 2.02791 2.02563 2.0297 2.02791 2.03345 2.0297 2.03438 2.02615 2.03247 2.02791 2.03345 2.02856 2.02707 2.03159 2.03066 2.03159 2.03066 2.03492 2.03467 2.03066 2.0297 2.03467 2.03438 2.02707 2.02563 2.03066 2.0297 2.04519 2.03978 2.04613 2.04006 2.04613 2.04006 2.04723 2.04037 2.04006 2.03467 2.04037 2.03438 2.03978 2.03492 2.04006 2.03467 2.05084 2.04882 2.04011 2.04042 2.04011 2.04042 2.03247 2.03345 2.04042 2.04037 2.03345 2.03438 2.04882 2.04723 2.04042 2.04037 5.64151 5.48481 5.34418 5.24029 5.34418 5.24029 5.04289 4.99366 5.24029 5.14576 4.99366 4.94958 5.48481 5.34144 5.24029 5.14576 4.56821 4.80455 4.58435 4.78819 4.58435 4.78819 4.60459 4.77552 4.78819 4.99366 4.77552 4.94958 4.80455 5.04289 4.78819 4.99366 4.60162 4.59938 4.7013 4.73749 4.7013 4.73749 4.8303 4.88669 4.73749 4.77552 4.88669 4.94958 4.59938 4.60459 4.73749 4.77552 5.10721 4.97063 5.2142 5.05244 5.2142 5.05244 5.34144 5.14576 5.05244 4.88669 5.14576 4.94958 4.97063 4.8303 5.05244 4.88669 2.00353 2.00292 2.00335 2.0028 2.00335 2.0028 2.00333 2.00279 2.0028 2.00234 2.00279 2.00236 2.00292 2.0024 2.0028 2.00234 2.00341 2.00334 2.00282 2.00278 2.00282 2.00278 2.00235 2.00233 2.00278 2.00279 2.00233 2.00236 2.00334 2.00333 2.00278 2.00279 2.00169 2.00199 2.00172 2.002 2.00172 2.002 2.00179 2.00205 2.002 2.00233 2.00205 2.00236 2.00199 2.00235 2.002 2.00233 2.00194 2.00185 2.00216 2.00208 2.00216 2.00208 2.0024 2.00234 2.00208 2.00205 2.00234 2.00236 2.00185 2.00179 2.00208 2.00205 2.02383 2.02142 2.02215 2.01981 2.02215 2.01981 2.02034 2.01811 2.01981 2.01796 2.01811 2.01634 2.02142 2.01954 2.01981 2.01796 2.01774 2.01906 2.01518 2.01666 2.01518 2.01666 2.01306 2.01471 2.01666 2.01811 2.01471 2.01634 2.01906 2.02034 2.01666 2.01811 2.00791 2.01065 2.01125 2.0128 2.01125 2.0128 2.01369 2.01483 2.0128 2.01471 2.01483 2.01634 2.01065 2.01306 2.0128 2.01471 2.01809 2.01593 2.01868 2.01679 2.01868 2.01679 2.01954 2.01796 2.01679 2.01483 2.01796 2.01634 2.01593 2.01369 2.01679 2.01483 2.28948 2.27447 2.25925 2.24776 2.25925 2.24776 2.23219 2.22364 2.24776 2.23614 2.22364 2.21484 2.27447 2.25953 2.24776 2.23614 2.18383 2.20652 2.17794 2.19944 2.17794 2.19944 2.17171 2.19205 2.19944 2.22364 2.19205 2.21484 2.20652 2.23219 2.19944 2.22364 2.16333 2.16768 2.18328 2.18783 2.18328 2.18783 2.20555 2.21034 2.18783 2.19205 2.21034 2.21484 2.16768 2.17171 2.18783 2.19205 2.2393 2.2218 2.24933 2.22904 2.24933 2.22904 2.25953 2.23614 2.22904 2.21034 2.23614 2.21484 2.2218 2.20555 2.22904 2.21034 2.00759 2.00772 2.00834 2.00882 2.00834 2.00882 2.0092 2.01011 2.00882 2.00929 2.01011 2.01105 2.00772 2.00786 2.00882 2.00929 2.01199 2.0105 2.01353 2.01168 2.01353 2.01168 2.01523 2.01295 2.01168 2.01011 2.01295 2.01105 2.0105 2.0092 2.01168 2.01011 2.02056 2.0177 2.01606 2.01451 2.01606 2.01451 2.0128 2.01196 2.01451 2.01295 2.01196 2.01105 2.0177 2.01523 2.01451 2.01295 2.00888 2.01041 2.00839 2.00994 2.00839 2.00994 2.00786 2.00929 2.00994 2.01196 2.00929 2.01105 2.01041 2.0128 2.00994 2.01196 2.02183 2.0268 2.02301 2.02744 2.02301 2.02744 2.02418 2.02809 2.02744 2.03264 2.02809 2.03256 2.0268 2.03272 2.02744 2.03264 2.02565 2.0249 2.0285 2.0283 2.0285 2.0283 2.03164 2.03211 2.0283 2.02809 2.03211 2.03256 2.0249 2.02418 2.0283 2.02809 2.04308 2.03696 2.04385 2.03757 2.04385 2.03757 2.04459 2.03816 2.03757 2.03211 2.03816 2.03256 2.03696 2.03164 2.03757 2.03211 2.04494 2.04475 2.03842 2.03828 2.03842 2.03828 2.03272 2.03264 2.03828 2.03816 2.03264 2.03256 2.04475 2.04459 2.03828 2.03816 2.5639 2.53707 3.01322 2.86713 3.01322 2.86713 3.68438 3.34052 2.86713 2.73429 3.34052 3.04227 2.53707 2.50304 2.86713 2.73429 5.18915 4.36555 4.27186 3.77136 4.27186 3.77136 3.55758 3.28271 3.77136 3.34052 3.28271 3.04227 4.36555 3.68438 3.77136 3.34052 3.06444 3.29519 2.8967 3.07913 2.8967 3.07913 2.74909 2.88848 3.07913 3.28271 2.88848 3.04227 3.29519 3.55758 3.07913 3.28271 2.44415 2.58086 2.47488 2.65656 2.47488 2.65656 2.50304 2.73429 2.65656 2.88848 2.73429 3.04227 2.58086 2.74909 2.65656 2.88848 2.00035 2.00033 2.00037 2.00035 2.00037 2.00035 2.0004 2.00038 2.00035 2.00034 2.00038 2.00037 2.00033 2.00032 2.00035 2.00034 2.00049 2.00043 2.00048 2.00042 2.00048 2.00042 2.00049 2.00042 2.00042 2.00038 2.00042 2.00037 2.00043 2.0004 2.00042 2.00038 2.00054 2.0005 2.00045 2.00043 2.00045 2.00043 2.00039 2.00038 2.00043 2.00042 2.00038 2.00037 2.0005 2.00049 2.00043 2.00042 2.00032 2.00034 2.00031 2.00034 2.00031 2.00034 2.00032 2.00034 2.00034 2.00038 2.00034 2.00037 2.00034 2.00039 2.00034 2.00038 2.02565 2.0285 2.02364 2.02653 2.02364 2.02653 2.02177 2.02465 2.02653 2.02973 2.02465 2.02787 2.0285 2.03164 2.02653 2.02973 2.01664 2.01905 2.01873 2.02151 2.01873 2.02151 2.02104 2.02424 2.02151 2.02465 2.02424 2.02787 2.01905 2.02177 2.02151 2.02465 2.03242 2.02633 2.03629 2.02969 2.03629 2.02969 2.03973 2.0333 2.02969 2.02424 2.0333 2.02787 2.02633 2.02104 2.02969 2.02424 2.04308 2.04142 2.03696 2.03513 2.03696 2.03513 2.03164 2.02973 2.03513 2.0333 2.02973 2.02787 2.04142 2.03973 2.03513 2.0333 2.04141 2.04 2.04551 2.0441 2.04551 2.0441 2.05027 2.04886 2.0441 2.04247 2.04886 2.04717 2.04 2.0384